# vtk DataFile Version 4.0
vtk output
ASCII
DATASET UNSTRUCTURED_GRID
POINTS 22 float
0.000000 0.000000 0.000000 
0.000000 0.857143 0.000000 
0.000000 1.714286 0.000000 
0.000000 2.571429 0.000000 
0.000000 3.428571 0.000000 
0.000000 4.285714 0.000000 
0.000000 5.142857 0.000000 
0.000000 6.000000 0.000000 
0.857143 6.000000 0.000000 
1.714286 6.000000 0.000000 
2.571429 6.000000 0.000000 
3.428571 6.000000 0.000000 
4.285714 6.000000 0.000000 
5.142857 6.000000 0.000000 
6.000000 6.000000 0.000000 
6.000000 5.142857 0.000000 
6.000000 4.285714 0.000000 
6.000000 3.428571 0.000000 
6.000000 2.571429 0.000000 
6.000000 1.714286 0.000000 
6.000000 0.857143 0.000000 
6.000000 0.000000 0.000000 
CELLS 21 63
2 0 1
2 1 2
2 2 3
2 3 4
2 4 5
2 5 6
2 6 7
2 7 8
2 8 9
2 9 10
2 10 11
2 11 12
2 12 13
2 13 14
2 14 15
2 15 16
2 16 17
2 17 18
2 18 19
2 19 20
2 20 21
CELL_TYPES 21
3
3
3
3
3
3
3
3
3
3
3
3
3
3
3
3
3
3
3
3
3
POINT_DATA 22
SCALARS nodes integer 1
LOOKUP_TABLE default 
0
1
2
3
4
5
6
7
8
9
10
11
12
13
14
15
16
17
18
19
20
21
CELL_DATA 21
SCALARS elements integer 1
LOOKUP_TABLE default 
0
1
2
3
4
5
6
7
8
9
10
11
12
13
14
15
16
17
18
19
20
SCALARS structures integer 1
LOOKUP_TABLE default 
0
0
0
0
0
0
0
1
1
1
1
1
1
1
2
2
2
2
2
2
2
